# vtk DataFile Version 5.1
vtk output
ASCII
DATASET POLYDATA
POINTS 239 float
-18.5605 17.3683 -17.0798 -18.556 17.3582 -17.0893 -18.4016 17.2543 -17.0971 
19.0891 -20.4927 -8.4467 19.0857 -20.5162 -8.48306 19.1021 -20.4746 -8.38348 
-9.09745 17.3321 -8.67057 -9.41022 17.1755 -8.80431 -9.2837 17.1813 -8.89048 
-2.36445 7.54958 -12.3318 -2.36409 7.54974 -12.3319 -2.33572 7.61707 -12.3168 
-17.3046 18.1678 -15.9317 -17.2917 18.1233 -16.0665 -17.3148 18.2159 -15.8812 
-17.3239 17.7824 -16.27 -17.2816 17.7844 -16.273 -17.331 17.7998 -16.2339 
-13.67 21.1712 -18.6508 -13.6954 21.1418 -18.6317 -13.6645 21.1582 -18.6148 
-19.4347 16.5741 -18.069 -19.3567 16.5522 -18.0262 -19.4396 16.6446 -17.967 
-32.7003 -5.83481 -11.7614 -32.7155 -5.81496 -11.8702 -32.7083 -5.82891 -11.9219 
16.9892 -12.9712 -10.9901 16.9753 -12.9434 -10.9518 16.9777 -12.9323 -10.9578 
16.9999 -12.9766 -11.0188 16.9985 -12.8384 -11.0086 -17.4744 17.2934 -16.762 
-17.3756 17.3097 -16.6345 -17.4466 17.4198 -16.6732 -18.7244 17.4539 -17.1063 
-18.7217 17.3956 -17.1784 -18.5938 17.3476 -17.2143 14.2761 1.06148 -14.3739 
14.2684 1.05147 -14.4088 14.2974 0.993056 -14.4152 14.1278 1.53167 -14.3612 
14.1235 1.54253 -14.3622 14.0639 1.68554 -14.4033 15.6977 -4.47973 -12.7589 
15.6928 -4.44544 -12.7597 15.6328 -4.17474 -12.8295 12.6282 6.31634 -14.6688 
12.5875 6.40273 -14.6244 12.5977 6.42471 -14.6511 12.5357 6.54501 -14.6382 
12.5142 6.65382 -14.6735 12.4833 6.68876 -14.6523 11.6593 8.67461 -14.6879 
11.7011 8.69467 -14.5513 11.7264 8.72682 -14.4681 10.6367 11.3573 -13.8902 
10.5793 11.4853 -13.8541 10.5745 11.436 -13.9355 16.2846 -10.1481 -11.5055 
16.2819 -10.1041 -11.5154 16.2742 -10.0637 -11.5416 10.5307 11.5794 -13.8769 
10.3231 10.4563 -14.9694 10.3402 10.313 -15.0076 10.3673 10.3692 -14.963 
12.1604 -6.44619 -11.8721 12.1344 -6.33393 -11.7353 12.1582 -6.4269 -11.8665 
21.4354 -22.2326 -3.47974 21.4222 -22.209 -3.5253 21.4234 -22.2048 -3.55406 
9.01616 24.8225 -19.3977 9.00842 24.8995 -19.4247 8.99054 24.8415 -19.3961 
-17.4477 18.4715 -15.4671 -17.3653 18.4499 -15.4571 -17.4206 18.4828 -15.4532 
-13.684 21.2042 -18.7423 -5.29812 27.3756 -19.3215 -5.29695 27.3804 -19.3252 
-5.30141 27.3731 -19.3186 -19.2045 16.5802 -17.9433 -19.2687 16.5258 -18.0107 
-19.1947 16.5646 -17.9705 -20.5183 14.4226 -18.6636 -20.4789 14.3442 -18.6799 
-20.4577 14.3313 -18.6879 -33.0096 -5.65889 -11.7241 -32.8896 -5.69414 -11.9682 
-32.9236 -5.67243 -11.7842 12.2076 7.57828 -14.802 12.2619 7.43036 -14.9225 
12.2071 7.6073 -14.7501 12.0378 -6.46895 -12.1645 12.0601 -6.29803 -12.179 
12.0343 -6.46591 -12.1666 -17.5302 18.3059 -15.7466 -17.6551 18.3436 -15.7802 
-17.6824 18.3177 -15.8675 -17.5249 18.2985 -15.7588 -18.0918 17.4942 -16.8458 
-18.1717 17.549 -16.8332 -18.2004 17.5609 -16.9188 13.0268 9.87041 -7.77569 
13.0489 9.76386 -7.88395 13.0242 9.83861 -7.77698 8.57024 21.1497 -8.27394 
8.81253 20.7476 -8.42231 8.63732 21.1018 -8.23066 4.85977 21.7946 -8.88191 
4.98069 21.6459 -8.89601 4.99836 21.6638 -8.82808 4.87594 22.0315 -8.43457 
5.0805 21.669 -8.53046 4.88905 21.9474 -8.57435 4.60516 23.1067 -8.13516 
4.63785 22.9396 -8.19229 4.69288 22.6724 -8.23279 10.4483 24.0392 -5.66815 
10.4425 24.0395 -5.68124 10.4504 24.0303 -5.66562 4.3885 24.2625 -8.02819 
4.3996 24.1694 -8.08835 4.46424 24.0057 -8.06537 10.5098 24.0869 -5.55117 
9.44848 24.0129 -4.98653 9.51149 24.183 -4.54524 9.38962 24.1015 -4.7962 
9.38039 24.0997 -4.80277 9.32016 24.1372 -4.70935 9.50803 24.2578 -4.37807 
9.27396 24.2281 -4.54343 0.789284 25.9109 -7.17491 0.730073 26.0482 -7.33566 
0.821525 25.6832 -7.20706 0.6833 26.2126 -7.2555 0.726354 26.0572 -7.33385 
10.2559 24.9009 -2.80044 10.1579 24.8426 -2.88718 10.2867 24.8193 -2.96957 
10.2591 25.1845 -2.37506 10.2098 25.3673 -2.10539 10.1698 25.0499 -2.55137 
-4.8158 29.3477 -2.43406 -4.72956 29.2222 -2.45345 -4.71718 29.2198 -2.41336 
-14.2753 13.4377 -5.3774 -14.6041 13.464 -5.19418 -14.5294 13.4432 -5.27456 
-4.53496 29.4992 -5.20186 -4.50476 29.3827 -5.54082 -4.50777 29.3827 -5.53205 
-4.50281 29.3683 -5.5793 -21.2213 9.17661 -9.37557 -21.1745 9.08306 -9.41107 
-21.1224 8.96632 -9.38169 15.5011 13.5253 -5.04105 15.4164 13.5139 -5.07591 
15.5809 13.5299 -5.02635 11.793 19.7257 -7.49177 11.7983 19.6496 -7.53145 
11.8049 19.7375 -7.46335 15.3115 13.8375 -3.89157 15.326 13.8351 -3.93235 
15.3423 13.8623 -3.92067 10.5655 24.1401 -5.4436 4.48546 24.5144 -7.6016 
4.47365 24.4889 -7.65465 4.48137 24.4717 -7.65455 4.56218 26.8337 -5.87794 
4.50715 26.7548 -5.93272 4.58931 26.7379 -5.90261 10.4368 24.694 -3.63259 
10.3726 24.6509 -3.68473 10.3455 24.6348 -3.71549 4.68122 27.2345 -5.47712 
4.67666 27.1831 -5.51481 5.16545 28.2768 -4.02094 5.01827 28.3962 -4.05007 
5.02282 28.3608 -4.06064 5.02765 28.3279 -4.17946 5.02671 28.3376 -4.23076 
0.726852 29.6433 -5.31643 0.682831 29.559 -5.69812 0.677818 29.6273 -5.18758 
-4.48268 29.2199 -5.97602 -4.54238 29.3829 -5.43115 -4.35293 29.1304 -6.53127 
-4.3657 28.9905 -6.77915 -4.4337 29.1399 -6.32798 -20.1391 -4.69752 -5.31267 
-20.0671 -4.71621 -5.40868 -19.9278 -4.69709 -5.37598 -16.4501 0.509753 -3.61242 
-16.3747 0.472278 -3.65879 -16.3431 0.514989 -3.64455 -19.9599 -4.28661 -3.94205 
-19.9886 -4.29664 -3.98144 -19.9749 -4.36031 -4.12039 -23.7992 -3.56733 -3.49641 
-23.6449 -3.68173 -3.57685 -23.804 -3.56059 -3.47141 -25.3913 -1.79705 -8.14198 
-25.3331 -1.87847 -8.08253 -25.3004 -1.92389 -8.03207 -25.5937 -1.5141 -8.34859 
-4.67911 28.4903 -3.52259 -4.66268 28.4748 -3.57964 -4.5663 28.4547 -3.80605 
-18.453 -4.18068 -7.18863 -18.437 -4.17997 -7.12921 -18.5278 -4.23299 -7.11528 
-20.8571 -4.18933 -4.26085 -20.9378 -4.12327 -4.18659 -20.969 -4.11439 -4.20068 
-21.9323 2.71592 -3.86544 -21.915 2.67876 -3.88787 -21.9102 2.68481 -3.884 
-23.1959 -3.86441 -3.65185 -23.2018 -3.86202 -3.65122 -23.1913 -3.87262 -3.66523 
-23.2045 -3.86557 -3.65952 -20.8801 -2.39937 -3.74821 -20.8986 -2.36938 -3.75061 
-20.8417 -2.50945 -3.78608 -25.2382 -2.1817 -7.3495 -25.2504 -2.16938 -7.32217 
-25.2893 -2.04556 -7.34604 -26.0176 -0.596906 -8.79401 -26.0506 -0.475761 -8.86176 
-26.0291 -0.472549 -8.96985 -26.6119 -9.00612 -2.76294 -26.2533 -9.07998 -2.92211 
-26.3393 -9.03407 -2.82524 -26.1854 -8.94478 -2.66218 -24.1278 -3.44579 -3.67121 
-24.0165 -3.51798 -3.68881 -24.0444 -3.45209 -3.63291 
POLYGONS 98 291
OFFSETS int
0 3 6 9 12 15 18 21 24 
27 30 33 36 39 42 45 48 51 
54 57 60 63 66 69 72 75 78 
81 84 87 90 93 96 99 102 105 
108 111 114 117 120 123 126 129 132 
135 138 141 144 147 150 153 156 159 
162 165 168 171 174 177 180 183 186 
189 192 195 198 201 204 207 210 213 
216 219 222 225 228 231 234 237 240 
243 246 249 252 255 258 261 264 267 
270 273 276 279 282 285 288 291 
CONNECTIVITY int
0 1 2 3 4 5 6 7 8 
9 10 11 12 13 14 15 16 17 
18 19 20 21 22 23 24 25 26 
27 28 29 27 29 30 30 29 31 
32 33 34 35 36 37 38 39 40 
41 42 43 44 45 46 47 48 49 
48 50 51 48 51 49 50 52 51 
53 54 55 56 57 58 59 60 61 
57 62 58 63 64 65 66 67 68 
69 70 71 72 73 74 75 76 77 
19 18 78 79 80 81 82 83 84 
85 86 87 88 89 90 91 92 93 
94 95 96 97 98 99 97 99 100 
101 102 103 104 105 106 107 108 109 
110 111 112 113 112 114 112 113 115 
116 117 118 119 120 121 122 123 124 
125 119 121 126 127 128 128 127 129 
129 127 130 131 132 130 127 131 130 
133 134 135 136 137 134 138 139 140 
141 142 143 144 145 146 147 148 149 
150 151 152 153 152 151 154 155 156 
157 158 159 160 161 162 163 164 165 
125 166 119 167 168 169 170 171 172 
173 174 175 176 170 177 177 170 172 
178 179 180 180 179 181 181 179 182 
183 184 185 152 153 186 152 186 187 
188 189 190 191 192 193 194 195 196 
197 198 199 200 201 202 203 204 205 
206 203 205 207 208 209 210 211 212 
213 214 215 216 217 218 219 220 221 
220 222 221 223 224 225 226 227 228 
229 230 231 232 233 234 235 234 233 
236 237 238 
CELL_DATA 97
SCALARS RegionId vtkIdType
LOOKUP_TABLE default
340 -1 -1 -1 -1 -1 -1 -1 -1 
-1 -1 -1 -1 -1 -1 -1 -1 -1 
-1 -1 -1 -1 -1 -1 -1 -1 -1 
-1 -1 -1 -1 -1 -1 -1 -1 -1 
-1 -1 -1 -1 37 76 76 76 76 
76 76 76 76 76 76 76 76 76 
117 117 76 76 130 166 130 130 188 
-1 -1 -1 -1 -1 -1 -1 -1 -1 
-1 -1 -1 -1 -1 -1 -1 1 1 
1 1 1 1 1 1 1 1 1 
1 1 1 1 1 1 1 
POINT_DATA 239
SCALARS RegionId int
LOOKUP_TABLE default
33 33 33 33 33 33 33 33 33 
33 33 33 33 33 33 33 33 33 
33 33 33 33 33 33 33 33 33 
33 33 33 33 33 33 33 33 33 
33 33 33 33 33 33 33 33 33 
33 33 33 33 33 33 33 33 33 
33 33 33 33 33 33 33 33 33 
33 33 33 33 33 33 33 33 33 
33 33 33 33 33 33 33 33 33 
33 33 33 33 33 33 33 33 33 
33 33 33 33 33 33 33 33 33 
33 33 33 33 33 33 33 33 33 
33 33 33 33 33 33 33 33 33 
33 33 33 33 33 33 33 33 33 
33 33 33 33 33 33 33 33 33 
33 33 33 33 33 33 33 33 33 
33 33 33 33 33 33 33 33 33 
33 33 33 33 33 33 33 33 33 
33 33 33 33 33 33 33 33 33 
33 33 33 33 33 33 33 33 33 
33 33 33 33 33 33 33 33 33 
33 33 33 33 33 33 33 33 33 
33 33 33 33 33 33 33 33 33 
33 33 33 33 33 33 33 33 33 
33 33 33 33 33 33 33 33 33 
33 33 33 33 33 33 33 33 33 
33 33 33 33 33 
FIELD FieldData 7
G4_EMP_STL_T1_mand_ROI 1 239 double
0 0 0 0 0 0 0 0 0 
0 0 0 0 0 0 0 0 0 
0 0 0 0 0 0 0 0 0 
0 0 0 0 0 0 0 0 0 
0 0 0 0 0 0 0 0 0 
0 0 0 0 0 0 0 0 0 
0 0 0 0 0 0 0 0 0 
0 0 0 0 0 0 0 0 0 
0 0 0 0 0 0 0 0 0 
0 0 0 0 0 0 0 0 0 
0 0 0 0 0 0 0 0 0 
0 0 0 0 0 0 0 0 0 
0 0 0 0 0 0 0 0 0 
0 0 0 0 0 0 0 0 0 
0 0 0 0 0 0 0 0 0 
0 0 0 0 0 0 0 0 0 
0 0 0 0 0 0 0 0 0 
0 0 0 0 0 0 0 0 0 
0 0 0 0 0 0 0 0 0 
0 0 0 0 0 0 0 0 0 
0 0 0 0 0 0 0 0 0 
0 0 0 0 0 0 0 0 0 
0 0 0 0 0 0 0 0 0 
0 0 0 0 0 0 0 0 0 
0 0 0 0 0 0 0 0 0 
0 0 0 0 0 0 0 0 0 
0 0 0 0 0 
G4_EMP_STL_T1_md_Ap_ROI 1 239 double
0 0 0 0 0 0 0 0 0 
0 0 0 0 0 0 0 0 0 
0 0 0 0 0 0 0 0 0 
0 0 0 0 0 0 0 0 0 
0 0 0 0 0 0 0 0 0 
0 0 0 0 0 0 0 0 0 
0 0 0 0 0 0 0 0 0 
0 0 0 0 0 0 0 0 0 
0 0 0 0 0 0 0 0 0 
0 0 0 0 0 0 0 0 0 
0 0 0 0 0 0 0 0 0 
0 0 0 0 0 0 0 0 0 
0 0 0 0 0 0 0 0 0 
0 0 0 0 0 0 0 0 0 
0 0 0 0 0 0 0 0 0 
0 0 0 0 0 0 0 0 0 
0 0 0 0 0 0 0 0 0 
0 0 0 0 0 0 0 0 0 
0 0 0 0 0 0 0 0 0 
0 0 0 0 0 0 0 0 0 
0 0 0 0 0 0 0 0 0 
0 0 0 0 0 0 0 0 0 
0 0 0 0 0 0 0 0 0 
0 0 0 0 0 0 0 0 0 
0 0 0 0 0 0 0 0 0 
0 0 0 0 0 0 0 0 0 
0 0 0 0 0 
Gauss_Curvature 1 239 double
-5.1013539025 -5.1198138016 5.2967798795 332.0276584 610.93507183 15.690321894 0.27733308478 -0.67059808378 -0.68697783973 
-0.46749757162 -0.45578710735 1.9751604976 -5.6520032272 -1.6678619568 -5.6250029959 3.7608367138 -10.1425172 7.853457385 
-1.6081453297 -1.4293466222 -0.97105480043 -2.1720682048 1.9318029414 25.984664905 -0.32741556409 -0.18621026438 -0.070977632257 
-0.52134330632 5.9153106453 6.7140026114 -3.5436462248 13.500096801 -2.0617894076 1.0757551645 2.9046734656 -7.8565693995 
5.7837005616 2.4024905492 -0.22740678215 1.3154290726 0.52502369275 -1.3760388662 -1.5048322312 -2.1340560204 0.0056465983753 
0.02444142026 1.0494858562 -1.8415768035 6.5305676732 7.6324109814 4.4036152303 4.2072697863 2.2545414766 5.5982180185 
0.53693765449 -1.909173005 0.013347769503 0.65483225796 0.72595980289 -0.15675994749 0.14200744526 0.29702355933 1.0079201608 
-3.4824756806 -2.6677768767 -2.8850442494 2.6163388604 6.2328615903 2.4876556148 13.782535947 8.1047576286 5.0518469935 
-1.8743339592 172.58299351 -0.45554579977 2.2061236206 2.2122112582 2.881422708 -3.2259482421 -3.37835883 -2.5842757182 
-3.3727430964 5.6305836 -8.9657579194 6.469500346 15.5779351 6.7960855367 0.49468033445 -0.22679474693 -0.064579992348 
-0.29086255941 0.075316242195 3.1495658839 -1.2338566611 -1.4698822845 6.0128719823 -1.2868425299 -0.26423987806 0.047012482655 
-0.16900381892 -0.32560217762 0.51816330809 -1.6277121211 -8.3163928869 -2.3501113531 -1.229450133 -2.9132859829 -1.3493413488 
-0.89047737636 -0.26755838995 -0.28288723732 0.67673415066 -0.028225189809 0.13958275495 0.10359143385 -1.1047401158 0.50241062199 
0.71823867196 0.30779579113 -1.9710866492 1.6456276033 -1.0981379517 0.17060868722 0.83079294238 1.6401140626 -1.7049041302 
-0.26619287541 0.089004743144 0.55192850244 0.52233293662 -0.3787091054 0.29154224136 -0.059841127001 0.21311095929 0.48901741592 
0.023680781932 1.1848894387 0.87879911691 0.27742966483 -0.085631825655 0.47309448106 0.21590208012 0.69651339384 0.051269316165 
-5.5634450751 -5.0560063983 -0.46512657169 -0.33540716603 -0.45174081107 -1.9884545916 -0.15589289848 -0.03041733942 -0.17545924763 
-0.16244794097 -0.41178769264 -0.45749545465 -0.35854934941 2.0541923701 3.5716032957 5.223700133 -1.5591148755 -1.4197952298 
-2.3360687445 1.389733298 2.563612918 0.50884175921 -2.2751362246 0.5259509461 0.61244756907 0.79059662465 6.0959010117 
-1.9270205014 -0.62217504932 0.25693502312 -1.2972036669 -2.3513923262 -1.3553731735 -2.0359827277 -10.73786736 -21.946502746 
27.583300705 26.47855034 -10.572195575 -0.33795893227 -0.32722924647 0.58968271172 -1.5238999796 -1.8433579789 0.69591637697 
-0.076719447465 -1.520301668 -0.30770199346 -0.27590997346 -0.058429519618 -1.4665566112 -1.4272222492 -0.95672250503 -0.64290089001 
-0.62314283437 0.36390179312 0.97662647716 -3.0305215811 0.082483332769 -0.185419005 -0.21019861765 -0.2015653308 -0.099297532506 
-0.35975970307 -0.42324184682 -1.1481977951 0.58189245115 0.29944318532 0.060385341368 -1.0263319065 0.065373141218 -0.10164702173 
0.48834358926 0.7211331888 0.43387774362 -0.35297862246 -0.35276483026 -0.36773980485 -0.35466408978 -0.56468401068 -0.65753436696 
-0.78493196794 0.66465871619 -0.010007475766 0.13791716384 0.12284633155 -0.22130606598 -0.3172617916 -0.52997301499 0.16659333121 
0.0020998795809 0.1018875391 -0.5856822377 -1.6168371702 7.6212211479 
Maximum_Curvature 1 239 double
5.1254622057 5.0623482472 4.2683395719 5.2497155972 0 15.41464485 1.2139335169 0.85160799822 1.150394584 
5.5724075055 5.587427325 10.049929153 5.2788125016 3.4411226914 4.9918102607 5.0853617307 7.5597759798 6.6549399709 
1.5284313254 1.4300653079 1.4307256962 6.2555959334 6.5787277677 9.6614795655 0.37366734849 0.15675463599 0.087569791981 
3.392905852 3.9780199105 3.4397813786 2.507325698 -1.1333676305 1.5107849277 -0.40545963092 -0.48266302674 4.3327480701 
3.2870090182 -0.31893017029 0.8373569877 1.0614844772 -0.29256060232 2.7257934339 2.6742777375 1.0583733641 0.21606319908 
0.18205912437 -0.26284628661 3.8766959887 3.5998812198 2.5290542785 3.1053300239 1.7326532615 2.6056354451 3.1464520786 
2.2787928117 1.1138889083 0.42492693742 -0.065662001508 -0.14110763661 0.60461866043 0.56962382299 0.44953006841 -0.16317247693 
3.4893240423 1.4736348909 1.9814039931 4.4743599217 3.7031085366 3.3289253558 9.5134812927 8.5395065944 6.6795291818 
1.9114213475 -0.26193269971 1.2466495495 1.1829074891 0.45787497346 0.51860654555 1.7765412001 1.7344780195 1.623884793 
1.7867851186 3.1697936911 4.5228830363 2.042909277 4.6909186192 3.8446579998 2.7503409395 0.98209260692 -0.012087048142 
0.36749956792 0.42523104779 -0.61998662976 0.67618991338 1.0022724365 -0.57926961851 0.99665156424 0.50117963668 1.6459018614 
0.052817769909 0.13989867409 1.6407382233 2.8434181982 1.1700343641 1.3621043789 0.60648731131 1.7455304136 0.5990752088 
0.52334101488 0.39821008011 0.30306234086 -0.15961860676 0.032344272189 0.57516362813 0.72858321976 0.87319945878 0.7179347393 
0.35016055491 1.374258408 0.91899945981 0.59989382398 0.91952666678 0.05448765468 -0.19922461833 0 0.83051332032 
1.9071588072 1.2251931159 -0.18748393077 -0.17378920158 1.2373181287 1.4433162266 0.56635478269 -0.10771529812 -0.24755869014 
1.0972073147 -0.28143588493 -0.30088174802 1.1654556278 1.7112861918 2.8602568199 1.7106813447 2.3317323064 1.648501767 
3.2150062429 2.3659808729 2.373715012 1.0011996894 0.44213154434 0.75394500657 0.21128377187 0.025271869909 0.034576424384 
0.03436100509 0.21820886823 0.22386034868 0.24436064398 0.28582526917 -0.81089139514 0.65716118562 1.71786816 0.1504807373 
1.7138572901 1.2163522728 1.134500707 -0.16168544253 0.74685956904 -0.15743987492 0.0029512494279 -0.31433264046 -0.63159312757 
0.31668755898 0.096493626244 3.0637709205 1.6867379983 0.78275158843 1.7809353159 1.7227872798 2.5031211484 3.554006678 
12.781557971 10.167058113 2.0664590331 0.097549492501 0.061935157417 -0.060208228832 0.12808489543 0.14157346265 -0.25360094259 
0.026677385273 0.38425585316 0.34825876271 0.27992496009 0.28961601184 1.4523033818 1.3959486913 1.3132587796 0.91829866199 
1.0046693461 2.0474755727 1.8104718254 2.9962373376 2.3883446823 0.44906778379 0.39848739016 0.44946530055 0.62485979584 
0.34455981351 0.38588524374 0.56911031487 -0.39539463241 -0.084587553675 0.069287258159 1.0704500043 0.71233420606 0.33964851705 
-0.23695313132 -0.28445522919 -0.25303339843 0.35280045686 0.35383664904 0.35296093285 0.37879090474 0.97167758847 1.0098109517 
0.37512565936 0.36714997679 0.59724085494 0.14304562206 -0.046343883725 0.22901178117 0.21936368728 0.36364602053 -0.078987397592 
0.30823113786 -0.041861950716 1.6775568342 1.5801344776 -1.5039514499 
Mean_Curvature 1 239 double
2.0627311132 2.0311741349 2.7546428985 8.6590226147 12.220991462 7.2073224546 0.72119586612 0.032079371594 0.27661372368 
2.2862037349 2.2937136879 5.1232319609 2.1394062499 1.4782186415 1.9959051265 2.0426808461 3.2798879599 3.9175171849 
0.26421566545 0.2150326655 0.37600541466 2.6277979271 2.7893638341 6.175495766 -0.3131663177 -0.42162268326 -0.36147832693 
1.1964529049 1.4890099199 0.64539066891 0.17916285123 -6.5224286402 -0.31910752685 -1.529317079 -3.2503391488 1.0918740546 
0.56900445486 -3.9259487437 -0.081321518673 0.030742218932 -1.0435707917 0.86289669471 0.83713885715 -0.47899062708 -0.39196838438 
-0.40897042114 -1.2059231764 1.438347959 1.2999406446 0.19002711426 1.0526649769 -0.20817338739 0.80281769639 1.0732260144 
0.63939644651 -0.51755557693 -0.19605724189 -0.0034012748372 -0.85767895925 -0.19769069586 -0.21518811184 -0.84973498055 -0.78230431706 
1.2446620107 -0.33768252941 -0.083797975101 1.7371799386 0.77705426795 0.58996267332 4.2567406416 3.7697533053 2.2652645334 
0.4557106872 -2.2534995701 -0.45117521381 0.091453768448 -0.84556254543 -0.8151967656 -0.019658875993 -0.2072609747 -0.26255758728 
-0.05040954126 1.0848968389 1.1869414991 -0.053045328595 1.8454593134 1.4223290104 0.30067051765 -0.008953714389 -1.0805435189 
-0.89075022212 -0.86188445642 -2.8500205773 -0.73640503112 -0.5733638159 -5.4796808519 -0.57617424232 -0.82391020348 -0.25154906122 
-1.5734676264 -1.0937578236 -0.25413091559 0.34720912749 -2.9688924901 -0.39344782138 -0.77125638473 0.03826643209 -0.77496239977 
-0.58909156837 -0.13684626218 -0.92296883107 -1.1543093308 -0.42015225612 0.40892359241 0.43538261983 -0.19598203914 -0.71553259922 
-0.89941968928 0.7991153448 -0.61500028405 -0.77455312625 -0.13735798532 -1.0472561674 -1.4073259235 -1.2545183072 -0.65924336646 
0.88379159297 0.64891929843 -1.1682420024 -1.1613946377 0.46562279317 0.82265546785 0.23034732013 -1.0430902047 -1.1114591063 
0.55939504636 -1.2152179613 -1.2249408544 0.70174979046 0.83062336919 1.512829809 0.91844479188 1.3152215041 0.83980115988 
0.53300315163 0.1084904698 1.0888831137 0.33309721281 -0.28980120492 -0.69752745641 -0.26327641076 -0.58916637587 -1.0572118095 
-1.0573195297 -0.96539557147 -0.96256984307 -0.61146758375 -0.93158738242 -2.6077155188 -0.74591942603 -0.21556588677 -4.6422911084 
-0.21757133328 -0.46632386984 -0.50724966041 -1.6543973693 -1.1497054332 -1.153219953 -1.0730243946 -1.4147459077 -5.141609849 
-2.8841194413 -3.1756710431 0.45738547941 -0.23113103285 -1.1106283926 -0.1840323245 -0.21310632471 -0.89333508275 -1.3105686234 
5.3162789397 4.0090291278 -1.524816737 -1.6834686699 -2.610740783 -4.9271316733 -5.8847463399 -6.4394657706 -1.4988702473 
-1.424572982 -1.7861134658 -0.32587062963 -0.36003753602 0.043933887723 0.2261517009 0.19797433819 0.29237425598 -0.040850691853 
0.0023346512906 1.1126037533 0.40523590635 0.99811865636 1.2114402283 -0.2754661097 -0.30075630934 0.00050473929703 -0.18757009814 
-0.32772011235 -0.30705739109 -0.78994482409 -0.93353488638 -0.54229377308 -0.46535637621 0.035225021078 -0.14383290156 -0.90467571808 
-1.1929765412 -1.2167275961 -0.98386941691 -0.32359979856 -0.32308170262 -0.34445509702 -0.31060457449 -0.014161203374 0.0049054754802 
-0.88693712766 -0.31642502273 -0.20137958531 -1.0029771863 -0.52317194789 -0.38549411821 -0.61345924579 -0.54687053382 -1.0940500983 
-0.34588444344 -0.5209309645 -0.23572158598 -0.284432786 -3.2857081631 
Minimum_Curvature 1 239 double
-0.99999997936 -0.99999997748 1.2409462252 -0.99999995812 0 -0.99999994103 0.22845821531 -0.78744925504 -0.59716713664 
-1.0000000357 -0.99999994934 0.1965347683 -1.0000000019 -0.48468540832 -1.0000000078 -1.0000000385 -1.00000006 1.1800943989 
-0.99999999448 -0.99999997685 -0.67871486687 -1.0000000792 -1.0000000995 2.6895119664 -0.99999998388 -1.0000000025 -0.81052644584 
-1.0000000423 -1.0000000707 -2.1490000408 -2.1489999956 -11.91148965 -2.1489999814 -2.6531745271 -6.0180152708 -2.148999961 
-2.1490001084 -7.5329673171 -1.000000025 -1.0000000393 -1.7945809811 -1.0000000445 -1.0000000232 -2.0163546182 -0.99999996784 
-0.99999996666 -2.1490000661 -1.0000000707 -0.99999993054 -2.14900005 -1.0000000701 -2.1490000363 -1.0000000523 -1.0000000499 
-0.99999991869 -2.1490000622 -1.0000000205 -1.0000000216 -2.1489999758 -1.0000000521 -1.0000000467 -2.1490000295 -2.1489998851 
-1.0000000209 -2.1489999497 -2.1489999433 -1.0000000444 -2.1490000007 -2.1490000091 -1.0000000096 -0.9999999838 -2.1490001149 
-0.9999999731 -2.1489999965 -2.1489999771 -0.99999995222 -2.1490000643 -2.1490000767 -1.8158589521 -2.1489999689 -2.1489999675 
-1.8876042011 -1.0000000134 -2.1490000382 -2.1489999342 -0.99999999241 -0.99999997886 -2.1489999042 -1.0000000357 -2.1489999897 
-2.1490000122 -2.1489999606 -5.0800545249 -2.1489999756 -2.1490000683 -10.380092085 -2.1490000489 -2.1490000436 -2.1489999838 
-3.1997530227 -2.3274143214 -2.1490000545 -2.1489999432 -7.1078193443 -2.1490000216 -2.1490000808 -1.6689975495 -2.1490000083 
-1.7015241516 -0.67190260447 -2.149000003 -2.1490000549 -0.87264878443 0.24268355669 0.1421820199 -1.2651635371 -2.1489999377 
-2.1489999335 0.22397228159 -2.1490000279 -2.1490000765 -1.1942426374 -2.1489999896 -2.1489999963 0 -2.1490000532 
-0.13957562129 0.072645480935 -2.149000074 -2.1490000739 -0.30607254239 0.20199470912 -0.10566014242 -1.9784651113 -1.9753595224 
0.021582778036 -2.1490000377 -2.1489999608 0.23804395313 -0.050039453404 0.16540279802 0.12620823907 0.29871070189 0.031100552751 
-2.1489999396 -2.1489999333 -0.19594878464 -0.33500526377 -1.0217339542 -2.1489999194 -0.7378365934 -1.2036046216 -2.1490000435 
-2.1490000645 -2.1490000112 -2.1490000348 -1.4672958115 -2.149000034 -4.4045396425 -2.1490000377 -2.1489999335 -9.4350629541 
-2.1489999567 -2.1490000125 -2.1490000278 -3.1471092961 -3.0462704354 -2.1490000311 -2.1490000385 -2.515159175 -9.6516265705 
-6.0849264417 -6.4478357124 -2.1489999617 -2.149000064 -3.0040083737 -2.1489999649 -2.1489999292 -4.2897913139 -6.1751439248 
-2.1490000919 -2.1489998576 -5.116092507 -3.4644868324 -5.2834167234 -9.7940551177 -11.897577575 -13.020505004 -2.744139552 
-2.8758233493 -3.9564827848 -1.000000022 -1.0000000321 -0.20174823639 -0.99999997999 -1.000000015 -0.72851026765 -1.0000000457 
-1.0000000435 0.17773193389 -1.0000000127 -1.0000000249 0.034535774247 -1.0000000032 -1.0000000088 -0.44845582195 -0.99999999211 
-1.0000000382 -1.0000000259 -2.148999963 -1.4716751404 -0.99999999249 -1.0000000106 -0.99999996218 -1.0000000092 -2.1489999532 
-2.1489999511 -2.1489999631 -1.7147054354 -1.000000054 -1.0000000543 -1.0418711269 -1.0000000537 -0.99999999522 -1.0000000007 
-2.1489999147 -1.0000000223 -1.0000000255 -2.1489999947 -1.000000012 -1.0000000176 -1.4462821789 -1.4573870882 -2.1091127989 
-1.0000000247 -0.99999997829 -2.1490000061 -2.1490000496 -5.0674648763 
UniversalID 1 239 int
33 33 33 33 33 33 33 33 33 
33 33 33 33 33 33 33 33 33 
33 33 33 33 33 33 33 33 33 
33 33 33 33 33 33 33 33 33 
33 33 33 33 33 33 33 33 33 
33 33 33 33 33 33 33 33 33 
33 33 33 33 33 33 33 33 33 
33 33 33 33 33 33 33 33 33 
33 33 33 33 33 33 33 33 33 
33 33 33 33 33 33 33 33 33 
33 33 33 33 33 33 33 33 33 
33 33 33 33 33 29 29 29 27 
27 27 26 26 26 26 26 26 26 
26 26 27 27 27 26 26 26 27 
26 26 26 26 26 26 26 25 25 
25 25 25 26 26 26 26 26 26 
24 24 24 21 21 21 24 24 24 
24 20 20 20 29 29 29 27 27 
27 28 28 28 27 26 26 26 25 
25 25 26 26 26 25 25 25 25 
25 25 25 25 25 24 24 24 24 
24 24 19 19 19 19 19 19 19 
19 19 19 19 19 19 19 19 19 
23 23 23 19 19 19 19 19 19 
19 19 19 19 19 19 19 19 19 
19 19 19 19 19 19 19 18 18 
18 18 19 19 19 
