# vtk DataFile Version 5.1
vtk output
ASCII
DATASET POLYDATA
POINTS 399 float
4.8334 -14.5209 -3.20276 4.82473 -14.5181 -3.28669 4.89907 -14.48 -3.20631 
5.69399 -15.1942 -3.17537 5.6387 -15.1014 -3.34453 5.69592 -15.1941 -3.32656 
6.27863 -16.2929 -4.03331 6.28383 -16.329 -4.15732 6.33672 -16.3589 -4.05255 
6.3444 -16.3793 -4.14333 6.40886 -16.5061 -4.36197 6.39418 -16.5555 -4.43923 
6.47133 -16.5511 -4.34891 6.47515 -16.5735 -4.42573 6.36962 -16.4178 -3.97871 
6.39679 -16.442 -4.12834 6.52978 -16.606 -4.33353 6.54226 -16.6136 -4.41235 
6.55465 -16.6476 -4.26296 6.59883 -16.6717 -4.40609 6.90497 -16.8192 -4.90696 
6.82027 -16.7782 -4.84245 6.82598 -16.8 -4.91885 5.27986 -15.3822 -1.66094 
5.20512 -15.3595 -1.55298 5.23638 -15.3424 -1.65952 5.02877 -13.5777 -2.72785 
5.05994 -13.6323 -2.63396 5.03603 -13.4885 -2.65525 5.04828 -13.4904 -2.56367 
7.17602 -16.9152 -5.10201 7.00082 -16.8624 -4.96703 7.0988 -16.8854 -5.11749 
7.11482 -16.8926 -5.19289 7.19802 -16.911 -5.17997 4.81068 -13.9963 -1.2212 
4.73023 -14.0773 -1.1526 4.80139 -14.0119 -1.08047 4.75731 -14.0949 -1.02976 
4.85829 -14.1606 -0.72196 4.80518 -14.195 -0.79077 4.8325 -14.2358 -0.71786 
4.86195 -14.1762 -0.62203 4.8451 -14.2423 -0.63342 1.86681 -17.7977 -4.25045 
1.9335 -17.8138 -4.15841 1.79868 -17.8204 -4.01715 1.97615 -17.7764 -4.5633 
2.05301 -17.757 -4.55415 2.03904 -17.7571 -4.47769 1.86795 -17.7912 -4.33217 
1.78453 -17.8323 -4.33752 1.76366 -17.8167 -4.17875 1.6798 -17.8471 -4.10468 
1.67059 -17.8397 -4.02626 1.77173 -17.8312 -3.93445 1.84242 -17.8646 -3.9086 
1.86568 -17.7947 -4.41338 1.92163 -17.7714 -4.40881 1.51243 -17.8152 -3.563 
1.58608 -17.8445 -3.5494 1.5623 -17.8537 -3.471 1.49391 -17.8129 -3.48567 
1.47672 -17.8158 -3.40512 1.38248 -17.7875 -3.34082 1.45619 -17.82 -3.32636 
1.27868 -17.7252 -3.11824 1.36032 -17.7699 -3.18281 1.33141 -17.7617 -3.02769 
1.27317 -17.706 -3.04041 1.19718 -17.7046 -3.13254 1.19286 -17.6053 -2.81968 
1.23834 -17.6774 -2.80461 1.22279 -17.6735 -2.7265 1.49042 -17.9387 3.85472 
1.69318 -17.8999 3.88114 1.49889 -17.8809 3.92932 5.81202 -15.0286 -13.1793 
5.90371 -15.0645 -13.0815 5.78138 -15.0509 -13.102 0.02499 -16.7138 0.32607 
0.02223 -16.8145 0.33466 -0.0313 -16.7403 0.33942 -0.07602 -16.8236 0.35748 
-0.03697 -16.6492 0.34451 -0.10432 -16.6145 0.13294 -0.13121 -16.6894 0.22048 
-0.14008 -16.7313 0.11943 -0.22607 -17.2953 2.81828 -0.17468 -17.3337 2.8863 
-0.1305 -17.2576 2.92124 12.4771 -13.3516 -3.7719 12.3885 -13.3428 -3.78605 
12.4974 -13.3535 -3.85022 12.5373 -13.3738 -3.70883 12.7227 -13.402 -4.13646 
12.7392 -13.4024 -4.21698 12.8393 -13.4375 -4.1501 0.00548 -16.4254 -0.62399 
0.01862 -16.4544 -0.53537 -0.02898 -16.489 -0.57406 -0.05399 -17.1984 3.38849 
-0.05566 -17.2929 3.37199 -0.04621 -17.1989 3.47021 -0.02414 -16.3546 0.83994 
-0.00922 -16.3307 0.74352 -0.07047 -16.4195 0.84115 11.3651 -12.8191 -2.85398 
11.4554 -12.8511 -2.91898 11.4141 -12.8485 -2.79587 11.5265 -12.8685 -2.89711 
12.2448 -13.2361 -3.45176 12.3657 -13.3066 -3.54953 12.3855 -13.3292 -3.46152 
-3.2247 -17.6255 -3.50151 -3.21077 -17.6267 -3.58233 -3.12709 -17.6495 -3.56812 
-3.10518 -17.643 -3.64684 11.1073 -12.6256 -2.93132 11.155 -12.6836 -2.9086 
11.1373 -12.6607 -2.83086 -3.07674 -17.6391 -3.78111 -2.98324 -17.6588 -3.78943 
0.08987 -15.1289 -1.75369 0.12955 -15.0224 -1.748 0.13644 -15.0238 -1.66506 
-3.64486 -17.4818 -2.51121 -3.68945 -17.4724 -2.69049 -3.5994 -17.5185 -2.79885 
-3.5712 -17.5412 -2.98281 -3.49742 -17.5709 -2.90502 -3.4808 -17.572 -3.05572 
10.8495 -12.2528 -2.99357 10.8797 -12.3007 -3.06904 10.9291 -12.3371 -3.00516 
-3.70863 -17.4477 -2.53417 -3.71395 -17.431 -2.45494 -3.55522 -17.5483 -2.62964 
-3.53475 -17.5547 -2.79066 -3.31261 -17.6375 -3.16587 -3.21323 -17.6753 -3.25324 
-3.16923 -17.7099 -3.22543 -3.8371 -17.316 -1.99742 -3.88882 -17.2584 -2.01053 
-3.88225 -17.2759 -2.08957 -7.5066 -16.6718 -4.12894 -7.5868 -16.6834 -4.21777 
-7.49996 -16.6897 -4.20621 -7.50059 -16.7144 -4.28601 -7.33586 -16.7525 -4.2571 
-7.32021 -16.7572 -4.3353 -7.26567 -16.7888 -4.24431 -7.34128 -16.758 -4.17501 
-7.19655 -16.8262 -4.23019 -4.06526 -17.0733 -1.57181 -4.10383 -16.9929 -1.58825 
-4.10251 -17.0178 -1.6645 -4.05598 -17.0861 -1.65043 -7.91473 -16.4589 -3.3972 
-7.90934 -16.476 -3.47569 -7.8292 -16.4984 -3.46165 -7.64068 -16.5998 -3.74926 
-7.62448 -16.604 -3.82764 -7.58205 -16.6523 -3.73399 -7.54852 -16.6491 -3.87896 
-7.78956 -16.544 -3.34248 -7.76692 -16.5427 -3.44856 -7.69862 -16.6045 -3.48713 
-7.90845 -16.4801 -3.06999 -7.9398 -16.4184 -3.16115 -7.88651 -16.4789 -3.14661 
-7.92958 -16.4296 -3.23994 -8.45392 -15.8326 -2.58326 -8.39365 -15.8847 -2.61519 
-8.35424 -15.815 -2.58247 16.884 -8.70349 -3.03054 16.9007 -8.70147 -3.10923 
16.9743 -8.71598 -3.02058 17.0793 -8.77311 -2.83627 17.3054 -8.85393 -2.91402 
17.3041 -8.84901 -3.05416 17.4346 -8.8923 -2.97317 17.4177 -8.87215 -3.13758 
-4.53363 -17.0271 0.96525 -4.56066 -17.0145 0.87926 -4.46149 -16.9994 0.88855 
-4.43231 -16.9824 0.80835 -4.49111 -16.9571 0.7153 -4.40394 -16.9705 0.72826 
23.432 -6.862 -9.83704 23.3693 -6.91195 -9.77315 23.3704 -6.82348 -9.88446 
-12.8284 -13.9448 -4.06407 -12.8255 -13.9675 -4.14127 -12.7773 -14.0485 -4.04531 
16.56 -8.94218 -1.41588 16.6944 -8.96154 -1.34316 16.3666 -8.91667 -1.30617 
15.9461 -8.39209 0.63524 15.7922 -8.38236 0.59425 16.0518 -8.42838 0.57466 
16.2732 -8.91935 -1.37708 16.2587 -8.91386 -1.29826 -10.0007 -16.1931 -0.26839 
-10.1158 -16.1888 -0.43958 -10.0447 -16.1845 -0.38704 -12.1124 -12.0624 -12.5125 
-12.0062 -12.1118 -12.5708 -12.0308 -12.1217 -12.489 -18.4918 -11.7984 -6.57738 
-18.3525 -11.9371 -6.5365 -18.3964 -11.7571 -6.27333 -18.4764 -11.87 -6.64702 
-18.5316 -11.8124 -6.66214 -18.5776 -11.7099 -6.59967 -16.19 -13.1218 -3.08377 
-16.074 -13.1267 -3.04576 -16.1774 -13.1414 -3.00232 -7.62602 -12.8102 -1.02578 
-7.58079 -12.8476 -0.94081 -7.51805 -12.7575 -0.93325 -19.5449 -10.567 -7.20104 
-19.5066 -10.5995 -7.11322 -19.607 -10.4875 -7.14241 -7.90601 -13.5137 -0.67673 
-7.89948 -13.5604 -0.5624 -7.83457 -13.4242 -0.60659 -7.8374 -13.3848 -0.69001 
-7.8619 -12.4416 -1.08498 -7.82861 -12.5568 -1.13302 -7.79236 -12.4866 -1.10796 
-20.1869 -9.91173 -7.46015 -20.1169 -9.97281 -7.31734 -20.2244 -9.87906 -7.38485 
-20.1247 -9.98453 -7.51734 -20.2084 -9.90557 -7.53977 -20.3176 -9.81337 -7.48261 
-16.3138 -13.3344 -1.82458 -16.2956 -13.3458 -1.95168 -16.1299 -13.3614 -1.9249 
-20.4066 -9.75623 -7.50391 -20.4093 -9.73545 -7.42339 -20.5535 -9.63415 -7.37953 
-8.00298 -14.3648 0.31562 -7.95753 -14.245 0.27227 -8.0335 -14.3841 0.22907 
-8.11162 -14.5253 0.39618 -8.13911 -14.5942 0.47773 -8.06852 -14.5445 0.48658 
-8.07568 -14.4531 0.2322 -13.3556 -13.4369 1.49808 -13.2362 -13.4269 1.51106 
-13.2695 -13.4483 1.59744 -13.4475 -13.5469 2.07808 -13.3972 -13.5148 1.8498 
-13.3682 -13.5113 1.90969 -13.288 -13.527 1.91958 -13.3867 -13.5145 1.98939 
-13.3067 -13.528 2.00336 -13.4808 -13.6177 2.2993 -13.3996 -13.5675 2.23778 
-18.2829 -7.77761 -3.40233 -18.2613 -7.75578 -3.47881 -18.1841 -7.78684 -3.4638 
-18.4139 -7.89026 -3.1582 -18.3586 -7.92469 -3.06486 -18.5042 -7.9526 -3.07806 
-17.8631 -8.28728 -1.07933 -17.815 -8.32915 -0.98682 -17.9335 -8.33141 -1.00247 
-22.6963 -5.15735 -11.3356 -22.6642 -5.21725 -11.2435 -22.7093 -5.14923 -11.2558 
-22.7492 -5.09668 -11.3497 -22.7592 -5.08206 -11.2715 -22.7302 -5.15022 -11.1805 
-23.6963 -3.8976 -11.1626 -23.5399 -4.12698 -11.0923 -23.6532 -3.99406 -11.0453 
24.5256 12.4777 -8.26703 24.5056 12.4951 -8.19029 24.516 12.5822 -8.20028 
24.5169 12.5847 -8.11909 24.4962 12.5048 -8.11237 -24.0197 -3.56064 -11.1436 
-24.037 -3.54531 -11.0732 -24.0738 -3.4909 -11.1672 -25.5418 -1.72474 -9.88359 
-25.6123 -1.69121 -9.89632 -25.5229 -1.68503 -9.891 -24.6293 -2.51894 -11.1221 
-24.6425 -2.50712 -11.0441 -24.6718 -2.41696 -11.0609 -24.6932 -2.426 -10.9816 
-25.4541 -1.73386 -9.87491 -22.3789 12.8849 -7.74087 -22.2647 12.8984 -7.74638 
-22.341 12.9584 -7.71134 -22.3006 13.026 -7.68121 -21.3844 -2.10097 -1.24989 
-21.3485 -2.01972 -1.59515 -21.2428 -2.05357 -1.49676 -20.6297 -2.09508 -1.99495 
-20.557 -2.1476 -2.07072 -20.4676 -2.15709 -2.0549 -20.6964 -2.06125 -1.61003 
-20.7549 -2.0331 -1.70282 -20.624 -2.06372 -1.68454 -20.6194 -2.08673 -1.59666 
-20.722 -2.0759 -1.53167 -21.7315 -2.22827 -0.26153 -21.6826 -2.23454 -0.34201 
-21.5972 -2.27049 -0.24325 -21.0898 -2.40699 -0.46447 -21.0632 -2.49587 -0.33081 
-21.1295 -2.43119 -0.34438 -21.1064 -2.50817 -0.19096 -21.1565 -2.44697 -0.2445 
-21.3811 -2.36105 -0.03669 -21.5765 -2.28281 -0.07463 -21.3713 -2.36493 -0.11805 
-23.0545 11.32 -12.7035 -22.9689 11.3675 -12.5526 -23.0487 11.3356 -12.4628 
-23.1364 15.5845 -5.16919 -23.0878 15.6446 -5.25241 -22.9896 15.6684 -5.20388 
31.7801 11.9048 -0.21266 31.5459 11.8322 -0.18939 31.8288 11.9011 -0.50863 
-23.3462 15.3087 -4.68131 -23.4758 15.3506 -4.83685 -23.2594 15.4435 -4.94741 
-22.3163 14.2598 -0.12141 -22.059 14.2996 -0.1625 -21.8808 14.3601 -0.0469 
-21.5999 14.4184 -0.12728 -21.5842 14.452 -0.01549 -22.5688 14.2255 -0.04336 
-22.3164 14.2941 -0.00826 -21.9683 14.368 0.02494 -21.7173 14.4475 0.05019 
-21.5392 14.505 0.07329 -20.7168 15.2673 0.48935 -20.6576 15.2263 0.42192 
-20.6374 15.3111 0.49493 -32.4551 17.8988 -6.64121 -32.3218 17.9632 -6.54738 
-32.4156 17.9767 -6.59529 -32.5219 17.9422 -6.65079 -27.784 10.0977 -7.82936 
-27.7724 10.1132 -7.74621 -27.8652 10.1934 -7.8092 -28.3633 24.5913 -1.92677 
-28.3346 24.5573 -2.04836 -28.2277 24.4556 -1.97262 -28.2233 24.4281 -2.13203 
-28.1158 24.3284 -2.10381 -29.4717 25.7108 -1.63065 -29.4597 25.7033 -1.70898 
-29.408 25.648 -1.69207 -29.439 25.662 -1.54038 -29.5238 25.7768 -1.64531 
-29.3379 25.5252 -1.44496 -29.261 25.4951 -1.65364 -28.5436 24.7258 -1.64319 
-28.5913 24.7674 -1.67024 -28.5286 24.714 -1.68174 -29.7451 26.0986 -1.54425 
-29.788 26.112 -1.64483 -29.6568 25.9594 -1.61207 -30.1275 26.7912 -0.92549 
-30.0969 26.7326 -1.11227 -30.0178 26.5837 -1.00037 -31.9471 30.2171 -0.90942 
-31.8843 30.1654 -0.89395 -31.8976 30.2875 -0.83821 -31.857 30.2715 -0.74503 
-31.9126 30.3453 -0.75793 -29.533 25.5117 -0.18136 -29.5227 25.4791 -0.1117 
-29.5784 25.5647 -0.16961 -26.1365 35.5967 3.82821 -26.0241 35.5841 3.81798 
-26.0254 35.6507 3.91759 -25.8133 35.8713 4.32419 -25.8183 35.828 4.23384 
-25.6242 35.9153 4.35746 -25.7409 35.9987 4.5487 -25.4409 36.021 4.47809 
-27.0609 32.4203 2.74846 -27.003 32.3835 2.79649 -27.022 32.4925 2.78088 
-28.128 31.6682 2.2994 -28.1765 31.6061 2.27558 -28.0688 31.633 2.36808 
0.1893 -16.0798 0.01197 0.15605 -16.1624 -0.04769 0.15439 -16.1845 0.02846 

POLYGONS 188 561
OFFSETS int
0 3 6 9 12 15 18 21 24 
27 30 33 36 39 42 45 48 51 
54 57 60 63 66 69 72 75 78 
81 84 87 90 93 96 99 102 105 
108 111 114 117 120 123 126 129 132 
135 138 141 144 147 150 153 156 159 
162 165 168 171 174 177 180 183 186 
189 192 195 198 201 204 207 210 213 
216 219 222 225 228 231 234 237 240 
243 246 249 252 255 258 261 264 267 
270 273 276 279 282 285 288 291 294 
297 300 303 306 309 312 315 318 321 
324 327 330 333 336 339 342 345 348 
351 354 357 360 363 366 369 372 375 
378 381 384 387 390 393 396 399 402 
405 408 411 414 417 420 423 426 429 
432 435 438 441 444 447 450 453 456 
459 462 465 468 471 474 477 480 483 
486 489 492 495 498 501 504 507 510 
513 516 519 522 525 528 531 534 537 
540 543 546 549 552 555 558 561 
CONNECTIVITY int
0 1 2 3 4 5 6 7 8 
8 7 9 10 11 12 12 11 13 
14 8 9 14 9 15 12 13 16 
16 13 17 18 16 17 18 17 19 
20 21 22 23 24 25 26 27 28 
28 27 29 30 31 32 30 32 33 
30 33 34 35 36 37 37 36 38 
39 40 41 39 41 42 42 41 43 
44 45 46 47 48 49 50 44 51 
52 44 46 52 46 53 53 46 54 
54 46 55 55 46 56 57 58 50 
59 60 61 59 61 62 62 61 63 
64 63 65 66 67 68 66 68 69 
70 66 69 71 72 73 74 75 76 
77 78 79 80 81 82 82 81 83 
84 80 82 85 86 87 88 89 90 
91 92 93 91 93 94 95 96 97 
98 99 100 101 102 103 104 105 106 
107 108 109 109 108 110 111 112 113 
114 115 116 116 115 117 118 119 120 
117 121 122 123 124 125 126 127 128 
128 129 130 130 129 131 132 133 134 
135 126 136 137 126 128 137 128 138 
138 128 130 139 140 141 142 143 144 
145 146 147 147 146 148 149 150 151 
152 149 151 152 151 153 154 155 156 
154 156 157 158 159 160 161 162 163 
163 162 164 165 160 166 165 166 167 
168 169 170 170 169 171 172 173 174 
175 176 177 178 175 177 179 180 181 
180 182 181 183 184 185 186 187 188 
189 190 191 192 193 194 195 196 197 
198 199 200 201 197 202 203 204 205 
206 207 208 209 210 211 212 209 213 
213 209 214 215 216 217 218 219 220 
221 222 223 224 225 226 224 226 227 
228 229 230 231 232 233 234 231 235 
235 231 236 236 231 233 237 238 239 
240 241 242 243 244 245 246 247 248 
249 243 245 250 251 252 253 254 255 
255 256 257 257 256 258 259 253 260 
253 255 257 261 262 263 264 265 266 
267 268 269 270 271 272 270 272 273 
273 272 274 274 272 275 276 277 278 
279 280 281 281 280 282 282 280 283 
284 285 286 287 288 289 290 291 292 
291 293 292 294 287 289 295 296 297 
297 296 298 299 300 301 302 303 304 
305 306 307 308 309 305 308 305 307 
310 311 312 313 314 315 315 314 316 
317 315 316 318 319 320 321 322 323 
324 325 326 327 328 329 330 331 332 
333 334 335 335 336 337 338 333 339 
339 333 335 339 335 340 340 335 341 
341 335 337 341 337 342 343 344 345 
346 347 348 346 348 349 350 351 352 
353 354 355 355 356 357 358 359 360 
361 362 358 361 358 360 361 360 363 
363 360 364 365 366 367 368 369 370 
371 372 373 374 375 376 376 377 378 
379 380 381 382 383 384 385 386 387 
388 387 389 390 391 392 393 394 395 
396 397 398 
CELL_DATA 187
FIELD FieldData 1
GroupIds 1 187 float
0 0 0 0 0 0 0 0 0 
0 0 0 0 0 0 0 0 0 
0 0 0 0 0 0 0 0 0 
0 0 0 0 0 0 0 0 0 
0 0 0 0 0 0 0 0 0 
0 0 0 0 0 0 0 0 0 
0 0 0 0 0 0 0 0 0 
0 0 0 0 0 0 0 0 0 
0 0 0 0 0 0 0 0 0 
0 0 0 0 0 0 0 0 0 
0 0 0 0 0 0 0 0 0 
0 0 0 0 0 0 0 0 0 
0 0 0 0 0 0 0 0 0 
0 0 0 0 0 0 0 0 0 
0 0 0 0 0 0 0 0 0 
0 0 0 0 0 0 0 0 0 
0 0 0 0 0 0 0 0 0 
0 0 0 0 0 0 0 0 0 
0 0 0 0 0 0 0 0 0 
0 0 0 0 0 0 0 0 0 
0 0 0 0 0 0 0 
POINT_DATA 399
FIELD FieldData 1


RegionId 1 399 int
33 33 33 33 33 33 33 33 33 
33 33 33 33 33 33 33 33 33 
33 33 33 33 33 33 33 33 33 
33 33 33 33 33 33 33 33 33 
33 33 33 33 33 33 33 33 33 
33 33 33 33 33 33 33 33 33 
33 33 33 33 33 33 33 33 33 
33 33 33 33 33 33 33 33 33 
33 33 33 33 33 33 33 33 33 
33 33 33 33 33 33 33 33 33 
33 33 33 33 33 33 33 33 33 
33 33 33 33 33 33 33 33 33 
33 33 33 33 33 33 33 33 33 
33 33 33 33 33 33 33 33 33 
33 33 33 33 33 33 33 33 33 
33 33 33 33 33 33 33 33 33 
33 33 33 33 33 33 33 33 33 
33 33 33 33 33 33 33 33 33 
33 33 33 33 33 33 33 33 33 
33 33 33 33 33 33 33 33 33 
33 33 33 33 33 33 33 33 33 
33 33 33 33 33 33 33 33 33 
33 33 33 33 33 33 33 33 33 
33 33 33 33 33 33 33 33 33 
33 33 33 33 33 33 33 33 33 
33 33 33 33 33 33 33 33 33 
33 33 33 33 33 33 33 33 33 
33 33 33 33 33 33 33 33 33 
33 33 33 33 33 33 33 33 33 
33 33 33 33 33 33 33 33 33 
33 33 33 33 33 33 33 33 33 
33 33 33 33 33 33 33 33 33 
33 33 33 33 33 33 33 33 33 
33 33 33 33 33 33 33 33 33 
33 33 33 33 33 33 33 33 33 
33 33 33 33 33 33 33 33 33 
33 33 33 33 33 33 33 33 33 
33 33 33 33 33 33 33 33 33 
33 33 33 33 33 33 33 33 33 
33 33 33 33 33 33 33 33 33 
33 33 33 33 33 33 33 33 33 
33 33 33 33 33 33 33 33 33 
33 33 33 33 33 33 33 33 33 
33 33 33 33 33 33 33 33 33 
33 33 33 
